units real
boundary p p p
atom_style full
pair_style lj/cut/coul/long 15.0
pair_modify mix geometric
bond_style harmonic
ERROR: Unknown bond style harmonic (src/force.cpp:390)
Last command: bond_style harmonic
